 VARIABLES = "X","Y","waveh","waveT","wavetheta"
 Zone n=       19688,e=       33613, f=feblock,et=triangle
         5706.6875         5862.5000         6047.4375         6232.4063         6417.3750         6602.3125         6787.2500         6972.1875         7157.1250         7342.0625         7527.0000         7711.9688         7896.9063         8081.8438         8266.7813         8451.7188         8636.6875         8821.6250         9006.5938         9191.5313         9376.4688         9561.4063         9746.3438         9931.3125        10116.2500        10301.1875        10487.2188        10678.7813        10871.7188        11064.6563        11257.5625        11450.5000        11643.4375        11836.3750        12029.2813        12222.2188        12415.1563        12608.0625        12801.0000        13024.9375        13324.8125        13785.4375        14246.0625        14706.6875        15167.3125        15627.9688        16088.5938        16549.2188        17009.8438        17470.4688        17931.0938        18391.7188        18852.3438        19312.9688        19773.6250        20234.2500        20694.8750        21155.5000        21616.1250        22076.7500        22537.3750        22998.0000        23458.6250        23919.2500        24379.9063        24840.5313        25301.1563        25761.7813        26222.4063        26683.0313        27143.6563        27604.2813        28064.9063        28525.5625        28986.1875        29446.8125        29907.4375        30368.0625        30828.6875        31289.3125        31749.9375        32210.5625        32671.2188        33131.8438        33592.4688        34053.0938        34513.7188        34974.3438        35434.9688        35895.5938        36356.2188        36816.8750        37277.5000        37738.1250        38198.7500        38659.3750        39120.0000        39580.6250        40041.2500        40501.8750        40962.5000        41423.1563        41883.7813        42344.4063        42805.0313        43265.6563        43726.2813        44186.9063        44647.5313        45108.1563        45568.8125        46029.4375        46490.0625        46950.6875        47411.3125        47871.9375        48332.5625        48793.1875        49253.8125        49714.4688        50175.0938        50635.7188        51096.3438        51556.9688        52017.5938        52478.2188        52938.8438        53399.4688        53860.1250        54320.7500        54781.3750        55242.0000        55702.6250        56163.2500        56623.8750        57084.5000        57545.1250        58005.7500        58466.4063        58927.0313        59387.6563        59848.2813        60308.9063        60769.5313        61230.1563        61690.7813        62151.4063        62612.0625        63072.6875        63533.3125        63993.9375        64454.5625        64915.1875        65375.8125        65836.4375        66297.0625        66757.7188        67218.3438        67678.9688        68139.5938        68600.2188        69060.8438        69521.4688        69982.0938        70442.7188        70903.3750        71364.0000        71824.6250        72285.2500        72745.8750        73206.5000        73667.1250        74127.7500        74588.3750        75049.0000        75509.6563        75970.2813        76430.9063        76891.5313        77352.1563        77812.7813        78273.4063        78734.0313        79194.6563        79655.3125        80115.9375        80576.5625        81037.1875        81497.8125        81958.4375        82419.0625        82879.6875        83340.3125        83800.9688        84261.5938        84722.2188        85182.8438        85643.4688        86104.0938        86564.6563
        87025.2188        87485.4688        87945.5938        88404.5938        88863.4688        89321.1250        89778.7188        89586.1563        89376.4688        89165.7813        88954.8125        88743.2500        88531.5000        88319.4688        88107.3750        87895.2500        87683.1250        87471.0000        87258.8750        87046.7188        86834.5938        86622.4688        86410.3438        86198.2188        85986.0938        85773.9688        85561.8125        85349.6875        85137.5625        84925.4375        84713.3125        84501.1875        84289.0313        84076.9063        83864.7813        83652.6563        83440.5313        83228.4063        83016.2813        82804.1250        82592.0000        82379.8750        82167.7500        81955.6250        81743.5000        81531.3438        81319.2188        81107.0938        80894.9688        80682.8438        80470.7188        80258.5938        80046.4375        79834.3125        79622.1875        79410.0625        79197.9375        78985.8125        78773.6563        78561.5313        78349.4063        78137.2813        77925.1563        77713.0313        77500.9063        77288.7500        77076.6250        76864.5000        76652.3750         6201.9688         6364.2813         6564.2188         6748.6250         6931.4688         7112.8438         7295.0000         7477.1250         7659.0938         7841.0625         8023.1250         8205.1250         8387.2813         8569.4375         8751.6250         8933.8750         9116.1563         9298.5000         9480.8438         9663.2500         9845.7188        10028.2188        10210.7500        10393.3438        10576.0313        10759.4375        10945.3438        11134.3750        11324.7500        11515.4063        11706.1563        11896.9375        12087.7813        12278.5938        12469.6563        12660.4375        12851.0938        13044.2813        13284.4063        13574.8438        14127.2500        14629.9688        15094.4688        15551.7813        16007.0938        16460.2500        16854.7500        17276.8125        17727.6563        18182.4375        18637.7500        19093.1250        19548.4688        20003.7813        20459.0000        20914.2188        21369.3438        21824.4375        22279.5000        22734.5000        23189.4688        23644.4063        24099.3125        24554.1875        25009.0313        25463.8438        25918.6250        26373.4063        26828.1563        27282.8750        27737.5938        28192.2813        28647.0313        29101.6563        29556.3438        30010.9688        30465.7500        30920.4375        31375.1250        31829.8125        32284.5000        32739.1875        33193.8750        33648.5938        34103.3125        34558.0313        35012.7813        35467.5313        35922.2813        36377.0625        36831.8750        37286.6875        37741.5625        38196.4375        38651.3438        39106.3125        39561.2813        40016.3125        40471.3750        40926.5000        41381.6563        41836.8750        42292.1563        42747.4688        43202.8438        43658.2813        44113.7813        44569.3438        45025.0000        45480.6875        45936.4375        46392.2813        46848.1875        47299.4063        47751.9375        48226.5938        48702.6875        49220.5313        49684.0000        50141.8438        50598.7188        51054.9375        51510.8750        51967.9688        52424.4375        52880.8750        53337.2813        53793.6250        54249.0000        54702.3438        55099.6250
        55519.5313        55971.0000        56426.0938        56881.6875        57337.3438        57792.9063        58248.3438        58703.6875        59158.9063        59613.9688        60068.9375        60523.7500        60978.4375        61433.0000        61887.4063        62341.6563        62795.8125        63249.7813        63703.6250        64157.3438        64610.9375        65064.3750        65517.6563        65970.8438        66423.9063        66876.8125        67329.6250        67782.3438        68234.9063        68687.4063        69139.8125        69592.1250        70044.3438        70496.5000        70948.5938        71400.5938        71852.5625        72304.4688        72756.3125        73208.1250        73659.9063        74111.6563        74563.3438        75015.0313        75466.6875        75918.3125        76369.9063        76821.4688        77273.0313        77724.5313        78176.0313        78627.4688        79078.9063        79530.2813        79981.5938        80432.0625        80882.0313        81264.9688        81729.4688        82223.4688        82679.9375        83131.7188        83582.8438        84033.7188        84486.3125        84933.2813        85386.1563        85837.1875        86287.9688        86739.0625        87190.0625        87638.0938        88096.9688        88529.0313        88946.1250        89320.7188        88941.8750        88797.1875        88588.9688        88382.7188        88176.6875        87971.0625        87765.5000        87561.0000        87357.7813        87154.9063        86949.5313        86752.0625        86558.2500        86365.0000        86166.2500        85945.6563        85760.7188        85552.1250        85350.8750        85146.9375        84942.8125        84741.0938        84513.3438        84375.7813        84168.9375        83963.8750        83757.5938        83550.2500        83297.9688        83103.7188        82893.3438        82687.9688        82483.0313        82278.4375        82074.1875        81870.2813        81666.7500        81463.6563        81260.9063        81058.4063        80856.1563        80649.1250        80449.6250        80251.3438        80050.5938        79853.1875        79626.9688        79495.6875        79292.2813        79090.2813        78887.3125        78684.0313        78480.4688        78276.6250        78071.9063        77865.9063        77615.7500        77420.3750        77211.5000        77002.1875        76788.1250        76620.9375        76238.8125        76222.6250         6699.2813         6693.6875         6884.9375         7090.7188         7275.0313         7450.2188         7630.6563         7809.5938         7989.8438         8169.0000         8348.1250         8527.0000         8706.5313         8886.0625         9065.6875         9245.4063         9425.1875         9605.0313         9784.9688         9965.0000        10145.0938        10325.2500        10505.5313        10685.8750        10866.3438        11047.2500        11229.6563        11414.6563        11602.0000        11790.3438        11979.0313        12167.7813        12356.6563        12545.6563        12734.4688        12924.2500        13112.4375        13297.1563        13515.2500        13808.6250        14292.9688        14750.9688        15202.8125        15654.3750        16105.7813        16554.5000        17009.9063        17459.4375        17910.2500        18360.9375        18811.5313        19261.9688        19712.3125        20162.5313        20612.6563        21062.6875        21512.5938        21962.4375        22412.2188        22861.9063
        23311.5313        23761.0938        24210.5625        24660.0313        25109.4375        25558.7813        26008.0938        26457.4063        26906.6875        27355.9375        27805.1563        28254.3438        28703.5938        29152.5625        29601.3125        30051.2500        30500.5625        30949.8438        31399.1563        31848.4375        32297.7500        32747.0938        33196.4688        33645.8438        34095.2813        34544.7188        34994.2188        35443.7500        35893.3125        36342.9063        36792.5625        37242.2813        37692.0313        38141.8750        38591.7500        39041.7188        39491.7813        39941.9063        40392.1250        40842.4375        41292.8750        41743.3750        42194.0000        42644.7500        43095.5938        43546.5625        43997.6563        44448.8750        44900.2500        45351.7188        45803.3750        46255.1250        46744.6563        47187.7188        47715.1875        48154.9063        48552.3750        48971.7500        49419.4063        49871.7188        50324.4688        50779.7188        51228.9688        51683.2813        52136.2500        52589.2188        53042.1250        53494.9375        53947.6563        54399.9375        54850.9688        55307.3125        55757.1563        56209.0938        56660.8750        57112.4375        57563.7500        58014.8750        58465.7500        58916.3750        59366.7813        59816.9063        60266.7813        60716.4063        61165.7500        61614.8125        62063.6250        62512.1563        62960.4063        63408.3750        63856.0625        64303.4688        64750.6250        65197.5313        65644.1563        66090.5313        66536.6563        66982.5625        67428.2500        67873.6875        68318.9375        68764.0000        69208.9063        69653.6250        70098.1875        70542.5938        70986.8750        71431.0313        71875.0938        72319.0625        72762.9375        73206.7188        73650.4375        74094.0938        74537.6563        74981.1875        75424.6563        75868.0938        76311.4688        76754.8125        77198.0938        77641.3125        78084.5000        78527.5938        78970.5938        79413.5625        79856.4063        80298.9063        80735.4688        81179.2500        81550.0000        81974.0625        82409.6875        82851.2188        83293.1250        83736.4688        84184.1563        84657.9375        85148.8125        85596.6563        86040.3438        86481.7188        86924.5313        87361.1563        87782.6875        88130.0313        88533.5000        88392.8125        88216.1875        88013.5938        87813.1563        87612.7500        87414.6250        87215.4375        87020.4688        86828.5938        86635.7188        86428.2813        86264.9375        86118.1875        85954.9375        85756.6563        85523.5313        85566.6875        85301.0938        85105.3125        84909.9063        84713.1250        84514.7500        84311.0625        84108.2500        83914.4375        83714.2188        83513.8438        83314.7188        83119.6875        82890.7188        82761.6563        82560.3750        82361.5000        82162.6875        81964.3438        81766.5000        81569.2813        81372.7500        81176.9688        80982.0625        80787.7813        80593.5625        80397.7500        80163.8438        79982.0625        79779.8750        79589.3125        79395.6875        79199.7188        79012.6563        78817.8125        78622.1875        78425.9688
        78228.7500        78031.5938        77833.6250        77636.4063        77442.0938        77211.4375        77083.4063        76881.9688        76687.6875        76439.5625        76198.5313        75747.0938        75772.5000         7121.5938         7185.3438         7115.8750         7377.0313         7620.7188         7778.4063         7965.7500         8141.7813         8319.0938         8502.2188         8677.9688         8850.0313         9027.1563         9204.3125         9381.6563         9559.0938         9736.6875         9914.3438        10092.1563        10270.0625        10448.1250        10626.2500        10804.5313        10982.9375        11161.5000        11340.3438        11520.1563        11701.9688        11886.1563        12072.0938        12258.8438        12445.9063        12633.0938        12820.4688        13008.2188        13194.5313        13385.0313        13567.8438        13738.8750        13996.1875        14455.0625        14899.0625        15344.2500        15792.5313        16238.6250        16687.1875        17135.3750        17581.7500        18028.1875        18474.5313        18920.6875        19366.6563        19812.4688        20258.1250        20703.6250        21149.0000        21594.2188        22039.3438        22484.3750        22929.2813        23374.0938        23818.8438        24263.5313        24708.1250        25152.7188        25597.2188        26041.7188        26486.2188        26930.6250        27375.1563        27819.1563        28263.1250        28706.9688        29147.7813        29597.0938        30041.9375        30486.6563        30931.3125        31376.0313        31820.7500        32265.5313        32710.3750        33155.2813        33600.2188        34045.2188        34490.3125        34935.4375        35380.6563        35825.9063        36271.2813        36716.7188        37162.2188        37607.8438        38053.5313        38499.3750        38945.3125        39391.3438        39837.5313        40283.8438        40730.3125        41176.9375        41623.6875        42070.6250        42517.7188        42964.9688        43412.4375        43860.0625        44307.9063        44755.9375        45204.1875        45652.6250        46101.2813        46508.6563        46895.0938        47328.0000        47795.8438        48243.4375        48698.4375        49146.4063        49596.3438        50048.1563        50504.5938        50990.3438        51490.2813        51947.5000        52399.0938        52849.7813        53300.1875        53750.4375        54200.4688        54649.2813        55100.0313        55550.5000        55998.5313        56447.2188        56895.6875        57343.8438        57791.6875        58239.1875        58686.3438        59133.1250        59579.5313        60025.5625        60471.1875        60916.4375        61361.2813        61805.7188        62249.7813        62693.4063        63136.6250        63579.4375        64021.8438        64463.8750        64905.4688        65346.7188        65787.5625        66228.0625        66668.2188        67108.0000        67547.4688        67986.6563        68425.5313        68864.1250        69302.5000        69740.6250        70178.5000        70616.2188        71053.7188        71491.0938        71928.2813        72365.3438        72802.2813        73239.1250        73675.8750        74112.5000        74549.0625        74985.5000        75421.9063        75858.1875        76294.5625        76730.7500        77166.8750        77602.9375        78038.8750        78474.7188        78910.4688        79346.0938
        79781.5938        80214.7813        80650.6875        81080.8125        81521.0625        81957.1250        82391.4375        82825.6875        83259.9688        83693.7500        84125.8750        84487.7188        84903.0938        85330.6250        85764.1563        86198.7188        86630.2500        87080.9375        87559.7813        87980.3438        87836.8750        87661.9688        87471.0625        87275.7813        87082.2813        86897.8750        86703.0938        86515.3438        86349.9688        86165.5938        85938.0625        85882.8438        85782.2813        85658.8438        85361.0938        85189.3125        85258.7500        84984.2813        84810.9688        84629.9688        84444.7813        84249.6875        84052.3438        83856.5000        83659.5313        83465.2188        83268.8125        83072.6250        82877.0000        82677.1250        82478.7188        82290.4375        82095.5313        81901.0625        81707.4375        81514.5000        81322.3750        81131.3750        80941.2500        80752.3125        80564.8750        80377.9375        80192.2813        80003.9063        79799.1250        79685.5000        79496.3438        79270.1250        79093.5938        78902.2813        78711.5000        78525.3125        78334.0000        78143.0625        77949.3438        77754.8438        77561.9688        77367.3125        77174.1875        76965.3125        76761.1563        76569.3750        76372.1563        76201.1563        75827.9375        75699.1563        75254.4063        75272.3750         7520.0000         7574.0625         7601.9688         7500.9375         7808.0625         8096.0313         8072.4375         8285.3125         8452.7500         8628.4375         8804.3750         9024.3750         9185.8750         9365.4375         9541.0313         9716.5625         9892.0938        10067.7813        10243.6250        10419.5938        10595.7500        10772.0313        10948.4688        11125.0938        11301.8750        11478.8438        11656.0938        11834.1250        12013.6563        12195.3438        12379.0938        12564.1250        12749.7188        12935.6875        13121.8125        13308.1250        13495.5938        13673.0000        13882.9688        14053.8750        14150.5313        14535.2813        14963.2500        15408.8125        15855.4375        16300.4063        16744.3438        17187.9063        17631.1250        18074.0313        18516.6563        18959.0000        19401.0938        19842.9688        20284.6250        20726.1250        21167.4375        21608.5625        22049.5625        22490.4375        22931.1875        23371.8438        23812.4063        24252.8750        24693.3125        25133.6875        25574.0313        26014.3438        26454.5938        26894.8125        27332.5938        27770.8125        28222.7813        28689.4375        29186.2500        29633.2188        30075.1563        30516.2188        30957.1250        31398.0938        31839.0938        32280.2188        32721.4063        33162.7188        33604.0938        34045.5938        34487.1875        34928.8750        35370.6563        35812.5625        36254.5625        36696.6875        37138.9375        37581.3125        38023.8438        38466.5000        38909.3438        39352.3438        39795.5000        40238.8438        40682.3750        41126.1250        41570.0625        42014.2188        42458.6250        42903.2500        43348.1250        43793.2500        44238.6563        44684.3125        45130.2500        45576.5000
        46023.0000        46469.8438        46902.9063        47367.9688        47813.2500        48259.3125        48708.3750        49156.9063        49605.5313        50054.0000        50500.5938        50889.0313        51306.9063        51750.7188        52199.0938        52648.0313        53096.9375        53545.7188        53994.2500        54442.5000        54890.4688        55338.0938        55785.3438        56232.2188        56678.6875        57124.7500        57570.3750        58015.5313        58460.2188        58904.4375        59348.1875        59791.4063        60234.1250        60676.3438        61118.0313        61559.1875        61999.8125        62439.9063        62879.4375        63318.4688        63756.9375        64194.8750        64632.3125        65069.2188        65505.6250        65941.5313        66377.0000        66812.0313        67246.5313        67680.6875        68114.3750        68547.8438        68980.8750        69413.6250        69846.0625        70278.2188        70710.1250        71141.8125        71573.3125        72004.5938        72435.7500        72866.7188        73297.5938        73728.3438        74158.9375        74589.5625        75019.6563        75449.5625        75880.4375        76310.6563        76740.7813        77170.7813        77600.6563        78030.4063        78460.0625        78889.5625        79318.8750        79748.0313        80177.0000        80603.5938        81033.0000        81462.5625        81890.8125        82318.4375        82746.0313        83173.4375        83600.5938        84021.2188        84453.6875        84882.7188        85311.2188        85744.0313        86190.9375        86667.0313        87047.5313        87506.1250        87284.7813        87154.2188        86958.3750        86768.9375        86587.0313        86463.1875        86220.6563        86099.6563        85934.6250        85796.8438        85498.5000        85606.8750        85528.4375        85436.9063        85102.9375        84996.5313        84890.0938        84900.0313        84584.8125        84354.0625        84187.5625        83982.9063        83788.9688        83595.7188        83401.8125        83208.0625        83014.5625        82821.2500        82628.2188        82434.4063        82242.0625        82049.2813        81859.8750        81669.0000        81479.0000        81289.8125        81101.6250        80914.3750        80729.1875        80544.7813        80362.1563        80182.7813        80002.2813        79818.6563        79586.4688        79427.1875        79255.8125        79086.5313        78879.1563        78770.9375        78587.6563        78401.9375        78204.4375        78024.2500        77839.9375        77643.7188        77452.0313        77253.3438        77066.9375        76881.3125        76692.0313        76449.9375        76222.5625        76036.8750        75824.3125        75460.0625        75305.7813        75297.0938        74814.6563        74786.8125         7865.3750         7943.5625         8015.9063         7770.0313         8209.4063         8557.5000         8527.8125         8715.5625         8895.2813         9067.5000         9235.6875         9443.8125         9546.7813         9722.2813         9895.1875        10068.7813        10242.5313        10416.5313        10590.7188        10765.0938        10939.6875        11114.4688        11289.4375        11464.5938        11640.0000        11815.5938        11991.5313        12168.1875        12346.1250        12526.0000        12707.9375        12891.3750        13075.7500        13260.6250
        13446.0313        13631.8438        13817.1563        14007.7188        14146.8125        14462.3438        14927.5625        15378.3438        15824.0625        16265.0000        16705.9063        17146.4063        17586.5000        18026.1563        18465.4375        18904.3750        19343.0000        19781.3438        20219.4375        20657.2813        21094.9063        21532.3438        21969.5938        22406.7188        22843.6875        23280.5625        23717.3125        24154.0000        24590.6563        25027.2500        25463.8125        25900.3750        26338.2188        26780.8438        27239.5313        27735.4688        28175.6875        28557.6250        28961.3438        29392.8438        29829.2188        30266.4063        30703.8750        31141.5000        31579.2813        32017.2188        32455.2813        32893.5000        33331.8438        33770.3125        34208.9375        34647.6875        35086.5938        35525.6250        35964.7813        36404.1250        36843.6250        37283.2500        37723.0625        38163.0625        38603.2500        39043.6563        39484.2500        39925.0938        40366.1563        40807.4375        41249.0313        41690.8438        42132.9688        42575.3750        43018.0625        43461.0938        43904.4375        44348.1563        44792.1875        45236.5938        45681.3750        46126.5313        46572.0625        47016.7188        47464.0000        47911.9063        48358.2188        48805.5000        49253.2188        49701.1875        50149.4063        50594.3750        51048.7188        51494.8750        51943.4063        52391.9688        52840.2813        53288.3750        53736.1875        54183.6563        54630.7500        55077.4063        55523.6250        55969.3750        56414.6250        56859.3438        57303.5313        57747.1250        58190.1875        58632.6250        59074.5000        59515.7500        59956.3750        60396.3438        60835.6875        61274.3750        61712.4063        62149.7500        62586.4375        63022.4688        63457.8125        63892.5313        64326.5625        64759.9688        65192.7188        65624.8750        66056.4688        66487.4063        66918.0938        67347.6250        67776.5938        68206.0938        68634.6250        69062.7813        69490.5000        69917.8750        70344.9375        70771.7188        71198.2188        71624.5000        72050.5625        72476.3750        72902.0938        73327.5938        73753.0938        74178.4063        74602.5625        75024.0625        75453.3750        75878.5313        76303.4063        76728.1250        77152.7188        77577.1563        78001.4688        78425.5938        78849.5938        79273.3438        79696.8750        80120.1875        80543.1875        80965.9375        81388.3750        81810.4688        82232.2813        82653.8125        83075.0625        83493.8438        83915.5938        84337.6875        84759.4375        85180.0625        85601.0000        85957.4063        86421.6875        86797.3125        86786.6250        86641.0938        86439.5313        86262.0625        86141.5938        85834.5000        85892.5000        85678.7188        85576.2188        85259.3750        85126.1250        85256.8438        85179.8750        84537.2188        84642.3750        84196.7813        84002.7813        83937.3750        83711.9375        83511.7813        83339.1875        83147.1875        82954.8750        82763.1563        82571.8750        82381.0313        82190.5938        82000.6250